 Entering Gaussian System, Link 0=g03
 Input=imn_gaussian_HF_pop.com
 Output=imn_gaussian_HF_pop.log
 Initial command:
 /opt/g03/l1.exe /tmp/jorge/g03_scratch/Gau-14732.inp -scrdir=/tmp/jorge/g03_scratch/
 Entering Link 1 = /opt/g03/l1.exe PID=     14733.
  
 Copyright (c) 1988,1990,1992,1993,1995,1998,2003,2004,2007, Gaussian, Inc.
                  All Rights Reserved.
  
 This is the Gaussian(R) 03 program.  It is based on the
 the Gaussian(R) 98 system (copyright 1998, Gaussian, Inc.),
 the Gaussian(R) 94 system (copyright 1995, Gaussian, Inc.),
 the Gaussian 92(TM) system (copyright 1992, Gaussian, Inc.),
 the Gaussian 90(TM) system (copyright 1990, Gaussian, Inc.),
 the Gaussian 88(TM) system (copyright 1988, Gaussian, Inc.),
 the Gaussian 86(TM) system (copyright 1986, Carnegie Mellon
 University), and the Gaussian 82(TM) system (copyright 1983,
 Carnegie Mellon University). Gaussian is a federally registered
 trademark of Gaussian, Inc.
  
 This software contains proprietary and confidential information,
 including trade secrets, belonging to Gaussian, Inc.
  
 This software is provided under written license and may be
 used, copied, transmitted, or stored only in accord with that
 written license.
  
 The following legend is applicable only to US Government
 contracts under FAR:
  
                    RESTRICTED RIGHTS LEGEND
  
 Use, reproduction and disclosure by the US Government is
 subject to restrictions as set forth in subparagraphs (a)
 and (c) of the Commercial Computer Software - Restricted
 Rights clause in FAR 52.227-19.
  
 Gaussian, Inc.
 340 Quinnipiac St., Bldg. 40, Wallingford CT 06492
  
  
 ---------------------------------------------------------------
 Warning -- This program may not be used in any manner that
 competes with the business of Gaussian, Inc. or will provide
 assistance to any competitor of Gaussian, Inc.  The licensee
 of this program is prohibited from giving any competitor of
 Gaussian, Inc. access to this program.  By using this program,
 the user acknowledges that Gaussian, Inc. is engaged in the
 business of creating and licensing software in the field of
 computational chemistry and represents and warrants to the
 licensee that it is not a competitor of Gaussian, Inc. and that
 it will not use this program in any manner prohibited above.
 ---------------------------------------------------------------
  

 Cite this work as:
 Gaussian 03, Revision E.01,
 M. J. Frisch, G. W. Trucks, H. B. Schlegel, G. E. Scuseria, 
 M. A. Robb, J. R. Cheeseman, J. A. Montgomery, Jr., T. Vreven, 
 K. N. Kudin, J. C. Burant, J. M. Millam, S. S. Iyengar, J. Tomasi, 
 V. Barone, B. Mennucci, M. Cossi, G. Scalmani, N. Rega, 
 G. A. Petersson, H. Nakatsuji, M. Hada, M. Ehara, K. Toyota, 
 R. Fukuda, J. Hasegawa, M. Ishida, T. Nakajima, Y. Honda, O. Kitao, 
 H. Nakai, M. Klene, X. Li, J. E. Knox, H. P. Hratchian, J. B. Cross, 
 V. Bakken, C. Adamo, J. Jaramillo, R. Gomperts, R. E. Stratmann, 
 O. Yazyev, A. J. Austin, R. Cammi, C. Pomelli, J. W. Ochterski, 
 P. Y. Ayala, K. Morokuma, G. A. Voth, P. Salvador, J. J. Dannenberg, 
 V. G. Zakrzewski, S. Dapprich, A. D. Daniels, M. C. Strain, 
 O. Farkas, D. K. Malick, A. D. Rabuck, K. Raghavachari, 
 J. B. Foresman, J. V. Ortiz, Q. Cui, A. G. Baboul, S. Clifford, 
 J. Cioslowski, B. B. Stefanov, G. Liu, A. Liashenko, P. Piskorz, 
 I. Komaromi, R. L. Martin, D. J. Fox, T. Keith, M. A. Al-Laham, 
 C. Y. Peng, A. Nanayakkara, M. Challacombe, P. M. W. Gill, 
 B. Johnson, W. Chen, M. W. Wong, C. Gonzalez, and J. A. Pople, 
 Gaussian, Inc., Wallingford CT, 2004.
 
 ******************************************
 Gaussian 03:  EM64L-G03RevE.01 11-Sep-2007
                 2-Feb-2009 
 ******************************************
 %nprocshared=2
 Will use up to    2 processors via shared memory.
 %mem=700MB
 Default route:  MaxDisk=260GB
 --------------------------------
 # HF/6-31(d,p) # POP=(MK,Dipole)
 --------------------------------
 1/38=1/1;
 2/17=6,18=5,40=1/2;
 3/5=1,6=6,7=101,11=9,16=1,25=1,30=1/1,2,3;
 4//1;
 5/5=2,32=1,38=5/2;
 6/7=2,8=2,9=2,10=2,15=24,20=1,28=1/1,2;
 99/5=1,9=1/99;
 ---------------------
 Molden generated mol2
 ---------------------
 Symbolic Z-matrix:
 Charge = -1 Multiplicity = 1
 C                     3.29732  -1.09326  -1.30647 
 C                     2.11293  -1.01116  -0.58007 
 C                     2.15119  -0.60793   0.75199 
 C                     3.35559  -0.27428   1.35127 
 C                     4.52272  -0.34916   0.60185 
 C                     4.50931  -0.75792  -0.72511 
 C                     0.80528  -1.44907  -1.24321 
 O                     0.79612  -2.31108  -2.10841 
 Cl                    6.0796    0.08499   1.36264 
 N                    -0.39734  -0.82922  -0.75426 
 C                    -0.62998   0.55845  -0.59382 
 C                    -1.99028   0.71478  -0.2689 
 C                    -2.60682  -0.61384  -0.24971 
 C                    -1.6501   -1.50641  -0.56338 
 C                    -2.4925    1.99603  -0.05644 
 C                    -1.65219   3.09476  -0.18105 
 C                    -0.30471   2.92023  -0.52915 
 C                     0.20929   1.65537  -0.73954 
 C                    -4.0682   -0.92191   0.04712 
 C                    -4.30836  -2.05495   1.1926 
 O                    -3.96024  -3.24655   0.86677 
 C                    -1.79216  -3.0108   -0.6318 
 O                    -2.27469   4.33925   0.04931 
 C                    -1.39972   5.46779  -0.01976 
 O                    -4.83205  -1.64539   2.24942 
 H                    -2.00737   6.34512   0.21138 
 H                    -0.58367   5.41403   0.70709 
 H                    -0.96599   5.60462  -1.01505 
 H                    -1.86728  -3.3429   -1.66438 
 H                    -0.92567  -3.49286  -0.18904 
 H                    -2.73905  -3.2433   -0.03633 
 H                    -4.56432  -0.00405   0.35194 
 H                    -4.54816  -1.25662  -0.87342 
 H                     0.34865   3.77035  -0.64122 
 H                     1.24713   1.54057  -1.01747 
 H                    -3.53078   2.15533   0.2007 
 H                     5.43198  -0.81418  -1.28745 
 H                     3.26424  -1.42591  -2.33696 
 H                     1.23191  -0.55894   1.32325 
 H                     3.39183   0.0384    2.38669 
 
                          Input orientation:                          
 ---------------------------------------------------------------------
 Center     Atomic     Atomic              Coordinates (Angstroms)
 Number     Number      Type              X           Y           Z
 ---------------------------------------------------------------------
    1          6             0        3.297321   -1.093264   -1.306472
    2          6             0        2.112933   -1.011164   -0.580074
    3          6             0        2.151188   -0.607927    0.751992
    4          6             0        3.355594   -0.274281    1.351271
    5          6             0        4.522716   -0.349162    0.601849
    6          6             0        4.509305   -0.757920   -0.725108
    7          6             0        0.805275   -1.449068   -1.243214
    8          8             0        0.796121   -2.311083   -2.108415
    9         17             0        6.079598    0.084993    1.362644
   10          7             0       -0.397341   -0.829221   -0.754259
   11          6             0       -0.629977    0.558451   -0.593823
   12          6             0       -1.990284    0.714783   -0.268903
   13          6             0       -2.606821   -0.613843   -0.249706
   14          6             0       -1.650095   -1.506410   -0.563376
   15          6             0       -2.492499    1.996025   -0.056438
   16          6             0       -1.652194    3.094756   -0.181054
   17          6             0       -0.304712    2.920230   -0.529151
   18          6             0        0.209285    1.655369   -0.739539
   19          6             0       -4.068200   -0.921912    0.047117
   20          6             0       -4.308358   -2.054947    1.192598
   21          8             0       -3.960238   -3.246552    0.866772
   22          6             0       -1.792161   -3.010799   -0.631798
   23          8             0       -2.274686    4.339249    0.049307
   24          6             0       -1.399720    5.467791   -0.019757
   25          8             0       -4.832047   -1.645390    2.249416
   26          1             0       -2.007369    6.345119    0.211380
   27          1             0       -0.583672    5.414028    0.707091
   28          1             0       -0.965987    5.604624   -1.015053
   29          1             0       -1.867278   -3.342904   -1.664376
   30          1             0       -0.925674   -3.492861   -0.189043
   31          1             0       -2.739054   -3.243302   -0.036332
   32          1             0       -4.564318   -0.004052    0.351944
   33          1             0       -4.548159   -1.256623   -0.873424
   34          1             0        0.348652    3.770347   -0.641216
   35          1             0        1.247133    1.540567   -1.017468
   36          1             0       -3.530783    2.155328    0.200697
   37          1             0        5.431977   -0.814182   -1.287448
   38          1             0        3.264235   -1.425909   -2.336959
   39          1             0        1.231909   -0.558941    1.323249
   40          1             0        3.391828    0.038395    2.386694
 ---------------------------------------------------------------------
                    Distance matrix (angstroms):
                    1          2          3          4          5
     1  C    0.000000
     2  C    1.391822   0.000000
     3  C    2.405503   1.392287   0.000000
     4  C    2.781677   2.411907   1.386019   0.000000
     5  C    2.386833   2.764461   2.390324   1.389034   0.000000
     6  C    1.385404   2.414077   2.786582   2.424109   1.388552
     7  C    2.518113   1.530191   2.549480   3.823036   4.293416
     8  O    2.895202   2.399919   3.594284   4.761186   5.008211
     9  Cl   4.031567   4.550840   4.035522   2.747618   1.786388
    10  N    3.745021   2.522879   2.968630   4.338863   5.126056
    11  C    4.319688   3.160290   3.302504   4.512384   5.366902
    12  C    5.683692   4.462299   4.465823   5.672885   6.656527
    13  C    6.017100   4.747956   4.862313   6.182946   7.185089
    14  C    5.019941   3.795514   4.121555   5.499176   6.387532
    15  C    6.680442   5.525159   5.384975   6.429318   7.426068
    16  C    6.580560   5.585157   5.389448   6.227068   7.113580
    17  C    5.448578   4.615567   4.485606   5.209484   5.939036
    18  C    4.172812   3.280199   3.334391   4.241968   4.941979
    19  C    7.490825   6.213513   6.267074   7.565247   8.627839
    20  C    8.063283   6.742761   6.634285   7.869696   9.013687
    21  O    7.876027   6.631269   6.657706   7.911418   8.968030
    22  C    5.480415   4.387593   4.820650   6.157960   6.963036
    23  O    7.899215   6.947967   6.675079   7.394581   8.275939
    24  C    8.171002   7.391180   7.079470   7.580509   8.324577
    25  O    8.890208   7.526022   7.216937   8.350094   9.586776
    26  H    9.261380   8.468659   8.119773   8.595184   9.359908
    27  H    7.839732   7.086012   6.614032   6.949075   7.700690
    28  H    7.944962   7.310103   7.171821   7.670533   8.257590
    29  H    5.644649   4.738650   5.428352   6.766754   7.411497
    30  H    4.984014   3.942697   4.321513   5.573247   6.339819
    31  H    6.532514   5.368414   5.610804   6.919918   7.843253
    32  H    8.108150   6.816789   6.754460   7.987283   9.097018
    33  H    7.859120   6.672065   6.924163   8.269436   9.234754
    34  H    5.726424   5.096987   4.935529   5.419476   5.994862
    35  H    3.350203   2.729882   2.926488   3.653793   4.113722
    36  H    7.710247   6.518267   6.342263   7.392497   8.443473
    37  H    2.152906   3.399299   3.868518   3.400838   2.147660
    38  H    1.083352   2.141064   3.383724   3.864924   3.373389
    39  H    3.386275   2.145541   1.083424   2.142861   3.375476
    40  H    3.863814   3.396890   2.151551   1.082211   2.148204
                    6          7          8          9         10
     6  C    0.000000
     7  C    3.803414   0.000000
     8  O    4.256006   1.221363   0.000000
     9  Cl   2.745001   6.079665   6.760515   0.000000
    10  N    4.907251   1.438601   2.335381   6.875158   0.000000
    11  C    5.306815   2.551821   3.544287   7.005021   1.416154
    12  C    6.679943   3.666972   4.505965   8.257214   2.270900
    13  C    7.133443   3.650624   4.232663   8.862388   2.276568
    14  C    6.206819   2.548394   3.003101   8.123440   1.436807
    15  C    7.553581   4.914511   5.794550   8.896442   3.585897
    16  C    7.287193   5.273867   6.239556   8.439330   4.159425
    17  C    6.061514   4.564288   5.574275   7.237187   3.757344
    18  C    4.930958   3.201003   4.236855   6.430072   2.557616
    19  C    8.613757   5.068886   5.498885  10.282134   3.758457
    20  C    9.116527   5.696447   6.084242  10.607445   4.537478
    21  O    8.969979   5.512994   5.687688  10.589778   4.600594
    22  C    6.692731   3.091845   3.060916   8.690588   2.592258
    23  O    8.520762   6.682917   7.636265   9.466658   5.557268
    24  C    8.612408   7.362186   8.348359   9.318033   6.418459
    25  O    9.843589   6.634486   7.149134  11.083528   5.418008
    26  H    9.684896   8.412857   9.389933  10.291434   7.415916
    27  H    8.129117   7.268765   8.337160   8.557309   6.414704
    28  H    8.399099   7.276263   8.182841   9.260672   6.464189
    29  H    6.944435   3.302504   2.890592   9.168760   3.050841
    30  H    6.107885   2.878290   2.836400   8.017644   2.773731
    31  H    7.693520   4.151880   4.202383   9.529077   3.439015
    32  H    9.168369   5.784905   6.333251  10.692165   4.389566
    33  H    9.072395   5.369640   5.585554  10.942996   4.174466
    34  H    6.150063   5.273822   6.271897   7.102185   4.661042
    35  H    4.001285   3.030531   4.028497   5.579995   2.896458
    36  H    8.601578   5.820477   6.633470   9.899284   4.431471
    37  H    1.081996   4.670269   4.940229   2.872441   5.853671
    38  H    2.143472   2.691338   2.631986   4.888369   4.033375
    39  H    3.869972   2.749741   3.877658   4.890429   2.653968
    40  H    3.400909   4.698833   5.697697   2.876623   4.997614
                   11         12         13         14         15
    11  C    0.000000
    12  C    1.407284   0.000000
    13  C    2.323920   1.464832   0.000000
    14  C    2.303306   2.266306   1.345507   0.000000
    15  C    2.413377   1.392459   2.619510   3.637813   0.000000
    16  C    2.765529   2.405472   3.830109   4.617023   1.388831
    17  C    2.384949   2.787988   4.226993   4.626702   2.421575
    18  C    1.388821   2.438094   3.649618   3.672216   2.807545
    19  C    3.797849   2.663902   1.522708   2.561556   3.317818
    20  C    4.853003   3.896262   2.655607   3.232754   4.611703
    21  O    5.263271   4.567565   3.163766   3.226481   5.521883
    22  C    3.753886   3.748454   2.560286   1.512630   5.088202
    23  O    4.172903   3.649506   4.973213   5.910772   2.355700
    24  C    5.002367   4.796032   6.204534   6.999835   3.639872
    25  O    5.531574   4.470790   3.501618   4.249227   4.904116
    26  H    6.002590   5.650809   6.999935   7.897746   4.384255
    27  H    5.027042   5.001402   6.429916   7.116446   3.988652
    28  H    5.074860   5.051383   6.476683   7.158130   4.033754
    29  H    4.230552   4.292703   3.161643   2.152227   5.610751
    30  H    4.082207   4.340972   3.334468   2.147300   5.709675
    31  H    4.383187   4.034995   2.641414   2.116696   5.245164
    32  H    4.085330   2.743688   2.136732   3.404054   2.908525
    33  H    4.327219   3.285515   2.137986   2.925286   3.933564
    34  H    3.358011   3.865968   5.301813   5.643156   3.400342
    35  H    2.160456   3.423907   4.481507   4.228971   3.887913
    36  H    3.405283   2.160748   2.953790   4.186779   1.081448
    37  H    6.254001   7.646249   8.107979   7.152566   8.497645
    38  H    4.705432   6.038989   6.283739   5.225200   7.074630
    39  H    2.896610   3.813115   4.148861   3.572534   4.722563
    40  H    5.032778   6.039605   6.584817   6.042377   6.665322
                   16         17         18         19         20
    16  C    0.000000
    17  C    1.402618   0.000000
    18  C    2.418438   1.381423   0.000000
    19  C    4.692842   5.409065   5.055500   0.000000
    20  C    5.954962   6.614075   6.157004   1.628978   0.000000
    21  O    6.829143   7.303470   6.632796   2.467274   1.283461
    22  C    6.123770   6.115566   5.078437   3.163025   3.251664
    23  O    1.410434   2.495802   3.741070   5.558463   6.806517
    24  C    2.391873   2.819325   4.200184   6.924851   8.156075
    25  O    6.203840   7.004433   6.726358   2.440697   1.248540
    26  H    3.293177   3.895804   5.273666   7.555379   8.764613
    27  H    2.703620   2.797345   4.104758   7.260967   8.360298
    28  H    2.732375   2.807019   4.129623   7.303944   8.643737
    29  H    6.609839   6.554174   5.490917   3.692488   3.972405
    30  H    6.627563   6.452054   5.300514   4.067065   3.926714
    31  H    6.432199   6.645150   5.760571   2.676274   2.320597
    32  H    4.285693   5.241374   5.170329   1.086977   2.231229
    33  H    5.272617   5.964182   5.579507   1.090774   2.227840
    34  H    2.161378   1.078027   2.121844   6.480716   7.680148
    35  H    3.394288   2.133107   1.080533   5.953983   6.976790
    36  H    2.134796   3.394891   3.888716   3.127589   4.394873
    37  H    8.166357   6.886977   5.803051   9.594062  10.127401
    38  H    7.018234   5.907155   4.623715   7.726735   8.378402
    39  H    4.891879   4.230511   3.194374   5.463645   5.740180
    40  H    6.432482   5.520103   4.745157   7.877044   8.068507
                   21         22         23         24         25
    21  O    0.000000
    22  C    2.646101   0.000000
    23  O    7.813687   7.397293   0.000000
    24  C    9.125895   8.509706   1.429665   0.000000
    25  O    2.288116   4.405297   6.869969   8.217503   0.000000
    26  H    9.810371   9.396301   2.030084   1.091955   8.716687
    27  H    9.296900   8.615729   2.108876   1.094136   8.382293
    28  H    9.531533   8.663427   2.108727   1.094286   8.841147
    29  H    3.285799   1.087269   7.881508   8.975061   5.195111
    30  H    3.222420   1.085917   7.951012   8.974779   4.961752
    31  H    1.518848   1.142473   7.597240   8.813469   3.486916
    32  H    3.338228   4.206320   4.919173   6.331975   2.523107
    33  H    2.708090   3.275827   6.110147   7.473899   3.159725
    34  H    8.371226   7.111055   2.771710   2.514822   8.032783
    35  H    7.320081   5.486436   4.623185   4.839870   7.601268
    36  H    5.459706   5.514048   2.523927   3.944926   4.509545
    37  H    9.938349   7.579127   9.366825   9.367086  10.888090
    38  H    8.109972   5.566560   8.343318   8.639734   9.307674
    39  H    5.864300   4.356468   6.157224   6.711977   6.229745
    40  H    8.194749   6.729236   7.487997   7.630746   8.395600
                   26         27         28         29         30
    26  H    0.000000
    27  H    1.771884   0.000000
    28  H    1.771143   1.774337   0.000000
    29  H    9.868935   9.162716   9.016219   0.000000
    30  H    9.905365   8.958387   9.134996   1.756620   0.000000
    31  H    9.619488   8.952525   9.076754   1.849443   1.836831
    32  H    6.846146   6.732552   6.802493   4.742099   5.069930
    33  H    8.088195   7.919139   7.741365   3.487878   4.311790
    34  H    3.592660   2.321389   2.287488   7.520342   7.388001
    35  H    5.931743   4.618403   4.627577   5.828064   5.544617
    36  H    4.458167   4.422785   4.466975   6.039561   6.232217
    37  H   10.432926   8.885765   9.066930   7.734057   6.985810
    38  H    9.729991   8.417682   8.310873   5.519027   5.142098
    39  H    7.706829   6.273145   6.948952   5.126530   3.943359
    40  H    8.582429   6.893700   7.845084   7.450003   6.143697
                   31         32         33         34         35
    31  H    0.000000
    32  H    3.738327   0.000000
    33  H    2.814334   1.752348   0.000000
    34  H    7.687073   6.274530   7.021617   0.000000
    35  H    6.303786   6.167179   6.436647   2.433260   0.000000
    36  H    5.461522   2.398748   3.718898   4.285688   4.968937
    37  H    8.615780  10.162176   9.998514   6.875734   4.809434
    38  H    6.680964   8.398697   7.950100   6.194937   3.822269
    39  H    4.982249   5.903184   6.222646   4.835494   3.144379
    40  H    7.363987   8.212324   8.680371   5.688288   4.294713
                   36         37         38         39         40
    36  H    0.000000
    37  H    9.558433   0.000000
    38  H    8.089328   2.484912   0.000000
    39  H    5.595589   4.951915   4.275407   0.000000
    40  H    7.561913   4.288172   4.947056   2.480519   0.000000
 Stoichiometry    C19H15ClNO4(1-)
 Framework group  C1[X(C19H15ClNO4)]
 Deg. of freedom   114
 Full point group                 C1
 Largest Abelian subgroup         C1      NOp   1
 Largest concise Abelian subgroup C1      NOp   1
                         Standard orientation:                         
 ---------------------------------------------------------------------
 Center     Atomic     Atomic              Coordinates (Angstroms)
 Number     Number      Type              X           Y           Z
 ---------------------------------------------------------------------
    1          6             0        3.297321   -1.093264   -1.306472
    2          6             0        2.112933   -1.011164   -0.580074
    3          6             0        2.151188   -0.607927    0.751992
    4          6             0        3.355594   -0.274281    1.351271
    5          6             0        4.522716   -0.349163    0.601849
    6          6             0        4.509305   -0.757921   -0.725108
    7          6             0        0.805275   -1.449068   -1.243214
    8          8             0        0.796121   -2.311083   -2.108415
    9         17             0        6.079598    0.084992    1.362644
   10          7             0       -0.397341   -0.829221   -0.754259
   11          6             0       -0.629977    0.558451   -0.593823
   12          6             0       -1.990284    0.714783   -0.268903
   13          6             0       -2.606821   -0.613843   -0.249706
   14          6             0       -1.650095   -1.506410   -0.563376
   15          6             0       -2.492499    1.996025   -0.056438
   16          6             0       -1.652194    3.094756   -0.181054
   17          6             0       -0.304712    2.920230   -0.529151
   18          6             0        0.209285    1.655369   -0.739539
   19          6             0       -4.068200   -0.921912    0.047117
   20          6             0       -4.308358   -2.054947    1.192598
   21          8             0       -3.960238   -3.246552    0.866772
   22          6             0       -1.792161   -3.010799   -0.631798
   23          8             0       -2.274685    4.339249    0.049307
   24          6             0       -1.399719    5.467791   -0.019757
   25          8             0       -4.832047   -1.645390    2.249416
   26          1             0       -2.007368    6.345119    0.211380
   27          1             0       -0.583671    5.414028    0.707091
   28          1             0       -0.965986    5.604624   -1.015053
   29          1             0       -1.867278   -3.342904   -1.664376
   30          1             0       -0.925674   -3.492861   -0.189043
   31          1             0       -2.739054   -3.243302   -0.036332
   32          1             0       -4.564318   -0.004052    0.351944
   33          1             0       -4.548159   -1.256623   -0.873424
   34          1             0        0.348652    3.770347   -0.641216
   35          1             0        1.247133    1.540567   -1.017468
   36          1             0       -3.530783    2.155328    0.200697
   37          1             0        5.431977   -0.814183   -1.287448
   38          1             0        3.264235   -1.425909   -2.336959
   39          1             0        1.231909   -0.558941    1.323249
   40          1             0        3.391828    0.038395    2.386694
 ---------------------------------------------------------------------
 Rotational constants (GHZ):      0.2422549      0.1217190      0.0923432
 Standard basis: 6-31G(d,p) (6D, 7F)
 There are   454 symmetry adapted basis functions of A   symmetry.
 Integral buffers will be    131072 words long.
 Raffenetti 1 integral format.
 Two-electron integral symmetry is turned on.
   454 basis functions,   829 primitive gaussians,   454 cartesian basis functions
    93 alpha electrons       93 beta electrons
       nuclear repulsion energy      2184.1682999751 Hartrees.
 NAtoms=   40 NActive=   40 NUniq=   40 SFac= 7.50D-01 NAtFMM=   80 NAOKFM=F Big=F
 One-electron integrals computed using PRISM.
 NBasis=   454 RedAO= T  NBF=   454
 NBsUse=   454 1.00D-06 NBFU=   454
 Harris functional with IExCor=  205 diagonalized for initial guess.
 ExpMin= 1.43D-01 ExpMax= 2.52D+04 ExpMxC= 3.78D+03 IAcc=1 IRadAn=         1 AccDes= 1.00D-06
 HarFok:  IExCor= 205 AccDes= 1.00D-06 IRadAn=         1 IDoV=1
 ScaDFX=  1.000000  1.000000  1.000000  1.000000
 Initial guess orbital symmetries:
       Occupied  (A) (A) (A) (A) (A) (A) (A) (A) (A) (A) (A) (A)
                 (A) (A) (A) (A) (A) (A) (A) (A) (A) (A) (A) (A)
                 (A) (A) (A) (A) (A) (A) (A) (A) (A) (A) (A) (A)
                 (A) (A) (A) (A) (A) (A) (A) (A) (A) (A) (A) (A)
                 (A) (A) (A) (A) (A) (A) (A) (A) (A) (A) (A) (A)
                 (A) (A) (A) (A) (A) (A) (A) (A) (A) (A) (A) (A)
                 (A) (A) (A) (A) (A) (A) (A) (A) (A) (A) (A) (A)
                 (A) (A) (A) (A) (A) (A) (A) (A) (A)
       Virtual   (A) (A) (A) (A) (A) (A) (A) (A) (A) (A) (A) (A)
                 (A) (A) (A) (A) (A) (A) (A) (A) (A) (A) (A) (A)
                 (A) (A) (A) (A) (A) (A) (A) (A) (A) (A) (A) (A)
                 (A) (A) (A) (A) (A) (A) (A) (A) (A) (A) (A) (A)
                 (A) (A) (A) (A) (A) (A) (A) (A) (A) (A) (A) (A)
                 (A) (A) (A) (A) (A) (A) (A) (A) (A) (A) (A) (A)
                 (A) (A) (A) (A) (A) (A) (A) (A) (A) (A) (A) (A)
                 (A) (A) (A) (A) (A) (A) (A) (A) (A) (A) (A) (A)
                 (A) (A) (A) (A) (A) (A) (A) (A) (A) (A) (A) (A)
                 (A) (A) (A) (A) (A) (A) (A) (A) (A) (A) (A) (A)
                 (A) (A) (A) (A) (A) (A) (A) (A) (A) (A) (A) (A)
                 (A) (A) (A) (A) (A) (A) (A) (A) (A) (A) (A) (A)
                 (A) (A) (A) (A) (A) (A) (A) (A) (A) (A) (A) (A)
                 (A) (A) (A) (A) (A) (A) (A) (A) (A) (A) (A) (A)
                 (A) (A) (A) (A) (A) (A) (A) (A) (A) (A) (A) (A)
                 (A) (A) (A) (A) (A) (A) (A) (A) (A) (A) (A) (A)
                 (A) (A) (A) (A) (A) (A) (A) (A) (A) (A) (A) (A)
                 (A) (A) (A) (A) (A) (A) (A) (A) (A) (A) (A) (A)
                 (A) (A) (A) (A) (A) (A) (A) (A) (A) (A) (A) (A)
                 (A) (A) (A) (A) (A) (A) (A) (A) (A) (A) (A) (A)
                 (A) (A) (A) (A) (A) (A) (A) (A) (A) (A) (A) (A)
                 (A) (A) (A) (A) (A) (A) (A) (A) (A) (A) (A) (A)
                 (A) (A) (A) (A) (A) (A) (A) (A) (A) (A) (A) (A)
                 (A) (A) (A) (A) (A) (A) (A) (A) (A) (A) (A) (A)
                 (A) (A) (A) (A) (A) (A) (A) (A) (A) (A) (A) (A)
                 (A) (A) (A) (A) (A) (A) (A) (A) (A) (A) (A) (A)
                 (A) (A) (A) (A) (A) (A) (A) (A) (A) (A) (A) (A)
                 (A) (A) (A) (A) (A) (A) (A) (A) (A) (A) (A) (A)
                 (A) (A) (A) (A) (A) (A) (A) (A) (A) (A) (A) (A)
                 (A) (A) (A) (A) (A) (A) (A) (A) (A) (A) (A) (A)
                 (A)
 The electronic state of the initial guess is 1-A.
 Warning!  Cutoffs for single-point calculations used.
 Requested convergence on RMS density matrix=1.00D-04 within 128 cycles.
 Requested convergence on MAX density matrix=1.00D-02.
 Requested convergence on             energy=5.00D-05.
 No special actions if energy rises.
 SCF Done:  E(RHF) =  -1541.64332970     A.U. after    8 cycles
             Convg  =    0.5084D-05             -V/T =  2.0018
             S**2   =   0.0000

 **********************************************************************

            Population analysis using the SCF density.

 **********************************************************************

 Orbital symmetries:
       Occupied  (A) (A) (A) (A) (A) (A) (A) (A) (A) (A) (A) (A)
                 (A) (A) (A) (A) (A) (A) (A) (A) (A) (A) (A) (A)
                 (A) (A) (A) (A) (A) (A) (A) (A) (A) (A) (A) (A)
                 (A) (A) (A) (A) (A) (A) (A) (A) (A) (A) (A) (A)
                 (A) (A) (A) (A) (A) (A) (A) (A) (A) (A) (A) (A)
                 (A) (A) (A) (A) (A) (A) (A) (A) (A) (A) (A) (A)
                 (A) (A) (A) (A) (A) (A) (A) (A) (A) (A) (A) (A)
                 (A) (A) (A) (A) (A) (A) (A) (A) (A)
       Virtual   (A) (A) (A) (A) (A) (A) (A) (A) (A) (A) (A) (A)
                 (A) (A) (A) (A) (A) (A) (A) (A) (A) (A) (A) (A)
                 (A) (A) (A) (A) (A) (A) (A) (A) (A) (A) (A) (A)
                 (A) (A) (A) (A) (A) (A) (A) (A) (A) (A) (A) (A)
                 (A) (A) (A) (A) (A) (A) (A) (A) (A) (A) (A) (A)
                 (A) (A) (A) (A) (A) (A) (A) (A) (A) (A) (A) (A)
                 (A) (A) (A) (A) (A) (A) (A) (A) (A) (A) (A) (A)
                 (A) (A) (A) (A) (A) (A) (A) (A) (A) (A) (A) (A)
                 (A) (A) (A) (A) (A) (A) (A) (A) (A) (A) (A) (A)
                 (A) (A) (A) (A) (A) (A) (A) (A) (A) (A) (A) (A)
                 (A) (A) (A) (A) (A) (A) (A) (A) (A) (A) (A) (A)
                 (A) (A) (A) (A) (A) (A) (A) (A) (A) (A) (A) (A)
                 (A) (A) (A) (A) (A) (A) (A) (A) (A) (A) (A) (A)
                 (A) (A) (A) (A) (A) (A) (A) (A) (A) (A) (A) (A)
                 (A) (A) (A) (A) (A) (A) (A) (A) (A) (A) (A) (A)
                 (A) (A) (A) (A) (A) (A) (A) (A) (A) (A) (A) (A)
                 (A) (A) (A) (A) (A) (A) (A) (A) (A) (A) (A) (A)
                 (A) (A) (A) (A) (A) (A) (A) (A) (A) (A) (A) (A)
                 (A) (A) (A) (A) (A) (A) (A) (A) (A) (A) (A) (A)
                 (A) (A) (A) (A) (A) (A) (A) (A) (A) (A) (A) (A)
                 (A) (A) (A) (A) (A) (A) (A) (A) (A) (A) (A) (A)
                 (A) (A) (A) (A) (A) (A) (A) (A) (A) (A) (A) (A)
                 (A) (A) (A) (A) (A) (A) (A) (A) (A) (A) (A) (A)
                 (A) (A) (A) (A) (A) (A) (A) (A) (A) (A) (A) (A)
                 (A) (A) (A) (A) (A) (A) (A) (A) (A) (A) (A) (A)
                 (A) (A) (A) (A) (A) (A) (A) (A) (A) (A) (A) (A)
                 (A) (A) (A) (A) (A) (A) (A) (A) (A) (A) (A) (A)
                 (A) (A) (A) (A) (A) (A) (A) (A) (A) (A) (A) (A)
                 (A) (A) (A) (A) (A) (A) (A) (A) (A) (A) (A) (A)
                 (A) (A) (A) (A) (A) (A) (A) (A) (A) (A) (A) (A)
                 (A)
 The electronic state is 1-A.
 Alpha  occ. eigenvalues -- -104.77463 -20.50555 -20.47793 -20.32002 -20.31712
 Alpha  occ. eigenvalues --  -15.51623 -11.30040 -11.25790 -11.21209 -11.20492
 Alpha  occ. eigenvalues --  -11.19615 -11.19499 -11.19445 -11.19381 -11.19273
 Alpha  occ. eigenvalues --  -11.17603 -11.17323 -11.15778 -11.15324 -11.14512
 Alpha  occ. eigenvalues --  -11.13927 -11.13195 -11.10708 -11.08720 -11.06177
 Alpha  occ. eigenvalues --  -10.50727  -7.97659  -7.97339  -7.97336  -1.31479
 Alpha  occ. eigenvalues --   -1.30280  -1.18593  -1.18253  -1.13238  -1.08882
 Alpha  occ. eigenvalues --   -1.06278  -1.04624  -0.98416  -0.97565  -0.94956
 Alpha  occ. eigenvalues --   -0.92397  -0.90778  -0.85625  -0.83884  -0.80997
 Alpha  occ. eigenvalues --   -0.78971  -0.77869  -0.73336  -0.71612  -0.69178
 Alpha  occ. eigenvalues --   -0.64184  -0.64140  -0.60377  -0.59725  -0.58874
 Alpha  occ. eigenvalues --   -0.57424  -0.56540  -0.56459  -0.54836  -0.54526
 Alpha  occ. eigenvalues --   -0.54438  -0.53227  -0.51494  -0.49706  -0.49506
 Alpha  occ. eigenvalues --   -0.48601  -0.47399  -0.46912  -0.46443  -0.45505
 Alpha  occ. eigenvalues --   -0.44601  -0.44506  -0.42944  -0.42580  -0.42175
 Alpha  occ. eigenvalues --   -0.41014  -0.40601  -0.40196  -0.40098  -0.39318
 Alpha  occ. eigenvalues --   -0.38315  -0.36785  -0.35500  -0.34614  -0.33008
 Alpha  occ. eigenvalues --   -0.29385  -0.28378  -0.27838  -0.22126  -0.21976
 Alpha  occ. eigenvalues --   -0.20432  -0.19799  -0.16754
 Alpha virt. eigenvalues --    0.15370   0.18682   0.22163   0.24104   0.24746
 Alpha virt. eigenvalues --    0.28908   0.31183   0.33153   0.34230   0.34543
 Alpha virt. eigenvalues --    0.34995   0.37264   0.37486   0.37643   0.38658
 Alpha virt. eigenvalues --    0.39358   0.39696   0.40299   0.40960   0.41735
 Alpha virt. eigenvalues --    0.42563   0.44170   0.44955   0.46025   0.47512
 Alpha virt. eigenvalues --    0.48054   0.48900   0.50473   0.51249   0.51613
 Alpha virt. eigenvalues --    0.52525   0.53331   0.54489   0.56396   0.56627
 Alpha virt. eigenvalues --    0.57423   0.58512   0.60592   0.62659   0.64477
 Alpha virt. eigenvalues --    0.65249   0.65357   0.65947   0.66957   0.68129
 Alpha virt. eigenvalues --    0.68993   0.70466   0.71161   0.73991   0.75465
 Alpha virt. eigenvalues --    0.75549   0.78958   0.79386   0.80237   0.80888
 Alpha virt. eigenvalues --    0.80933   0.82197   0.83249   0.83548   0.84491
 Alpha virt. eigenvalues --    0.84971   0.85474   0.86297   0.86908   0.87230
 Alpha virt. eigenvalues --    0.87359   0.88021   0.88200   0.88556   0.90619
 Alpha virt. eigenvalues --    0.90854   0.91234   0.91520   0.92157   0.93625
 Alpha virt. eigenvalues --    0.94184   0.95266   0.96556   0.97460   0.98038
 Alpha virt. eigenvalues --    0.98876   1.00230   1.01574   1.02412   1.04332
 Alpha virt. eigenvalues --    1.04672   1.05332   1.05679   1.06312   1.07778
 Alpha virt. eigenvalues --    1.08157   1.09189   1.09638   1.11258   1.12694
 Alpha virt. eigenvalues --    1.12916   1.13498   1.13717   1.14284   1.15834
 Alpha virt. eigenvalues --    1.16163   1.16835   1.17407   1.17870   1.18392
 Alpha virt. eigenvalues --    1.18962   1.19682   1.20418   1.20677   1.21905
 Alpha virt. eigenvalues --    1.23219   1.24208   1.24559   1.25540   1.25856
 Alpha virt. eigenvalues --    1.27183   1.27662   1.27895   1.28766   1.29066
 Alpha virt. eigenvalues --    1.30091   1.30238   1.31879   1.32293   1.33086
 Alpha virt. eigenvalues --    1.34315   1.35075   1.35598   1.36432   1.37652
 Alpha virt. eigenvalues --    1.39842   1.40207   1.40805   1.41631   1.42459
 Alpha virt. eigenvalues --    1.43682   1.44864   1.45728   1.46659   1.48381
 Alpha virt. eigenvalues --    1.49938   1.50421   1.50778   1.53173   1.54691
 Alpha virt. eigenvalues --    1.55045   1.55376   1.56407   1.58111   1.59239
 Alpha virt. eigenvalues --    1.59708   1.60710   1.63509   1.64617   1.66457
 Alpha virt. eigenvalues --    1.66775   1.67991   1.68130   1.69562   1.70959
 Alpha virt. eigenvalues --    1.71224   1.72121   1.73066   1.73572   1.74493
 Alpha virt. eigenvalues --    1.75168   1.76521   1.77534   1.77639   1.79480
 Alpha virt. eigenvalues --    1.80608   1.81858   1.82745   1.84880   1.86954
 Alpha virt. eigenvalues --    1.87054   1.91157   1.92799   1.93760   1.95835
 Alpha virt. eigenvalues --    2.00637   2.02110   2.04493   2.07979   2.08510
 Alpha virt. eigenvalues --    2.09736   2.10672   2.11373   2.13358   2.13489
 Alpha virt. eigenvalues --    2.14595   2.15986   2.16552   2.16839   2.17795
 Alpha virt. eigenvalues --    2.19096   2.19643   2.22180   2.22778   2.22939
 Alpha virt. eigenvalues --    2.24442   2.25093   2.25765   2.26490   2.27180
 Alpha virt. eigenvalues --    2.28364   2.29036   2.30390   2.30711   2.31726
 Alpha virt. eigenvalues --    2.32576   2.33054   2.33565   2.33981   2.35111
 Alpha virt. eigenvalues --    2.35758   2.35965   2.36811   2.38809   2.39169
 Alpha virt. eigenvalues --    2.40259   2.41070   2.41745   2.42411   2.43015
 Alpha virt. eigenvalues --    2.43493   2.43948   2.44133   2.46177   2.47813
 Alpha virt. eigenvalues --    2.48343   2.51034   2.51720   2.53092   2.54665
 Alpha virt. eigenvalues --    2.54967   2.57551   2.58257   2.59535   2.61010
 Alpha virt. eigenvalues --    2.61521   2.63224   2.64531   2.65743   2.67161
 Alpha virt. eigenvalues --    2.68464   2.68781   2.70089   2.71197   2.71795
 Alpha virt. eigenvalues --    2.75117   2.76499   2.77000   2.77911   2.78821
 Alpha virt. eigenvalues --    2.79589   2.81436   2.83177   2.83301   2.83928
 Alpha virt. eigenvalues --    2.84342   2.84947   2.85975   2.86903   2.87947
 Alpha virt. eigenvalues --    2.90241   2.90885   2.91801   2.93073   2.94673
 Alpha virt. eigenvalues --    2.95856   2.96051   2.96589   2.97771   2.98233
 Alpha virt. eigenvalues --    2.98913   2.99301   3.00368   3.01161   3.03669
 Alpha virt. eigenvalues --    3.05620   3.06288   3.07006   3.08205   3.08891
 Alpha virt. eigenvalues --    3.10952   3.11822   3.12693   3.15611   3.16820
 Alpha virt. eigenvalues --    3.17528   3.18325   3.20073   3.20746   3.23255
 Alpha virt. eigenvalues --    3.24411   3.24877   3.26148   3.27630   3.30474
 Alpha virt. eigenvalues --    3.31115   3.33209   3.34926   3.36557   3.37274
 Alpha virt. eigenvalues --    3.40211   3.42463   3.43972   3.45347   3.47249
 Alpha virt. eigenvalues --    3.48810   3.52965   3.55508   3.56865   3.60507
 Alpha virt. eigenvalues --    3.61308   3.62591   3.65483   3.66908   3.67195
 Alpha virt. eigenvalues --    3.73390   3.75218   3.76804   3.80323   3.81198
 Alpha virt. eigenvalues --    3.85356   3.85653   3.87115   3.90757   3.94954
 Alpha virt. eigenvalues --    3.95783   3.97575   4.02567   4.15599   4.24775
 Alpha virt. eigenvalues --    4.28273   4.55907   4.58141   4.59955   4.60633
 Alpha virt. eigenvalues --    4.62673   4.64364   4.68483   4.69358   4.70656
 Alpha virt. eigenvalues --    4.74418   4.78815   4.84212   4.86334   4.89763
 Alpha virt. eigenvalues --    4.91195   4.93154   4.94761   4.96294   5.01821
 Alpha virt. eigenvalues --    5.06905   5.12722   5.20111   5.27969   5.33555
 Alpha virt. eigenvalues --    5.43866
          Condensed to atoms (all electrons):
              1          2          3          4          5          6
     1  C    4.819292   0.525447  -0.043560  -0.033488  -0.042608   0.526341
     2  C    0.525447   5.106927   0.538148  -0.043496  -0.034875  -0.046696
     3  C   -0.043560   0.538148   4.820328   0.527444  -0.042063  -0.033992
     4  C   -0.033488  -0.043496   0.527444   4.883588   0.522119  -0.042605
     5  C   -0.042608  -0.034875  -0.042063   0.522119   5.057509   0.521479
     6  C    0.526341  -0.046696  -0.033992  -0.042605   0.521479   4.893640
     7  C   -0.028675   0.362391  -0.031685   0.002602  -0.000277   0.002988
     8  O    0.006024  -0.090220   0.001087  -0.000036  -0.000007   0.000474
     9  Cl   0.002071   0.000256   0.002074  -0.061070   0.220533  -0.062056
    10  N    0.004288  -0.121698   0.000383   0.000398  -0.000017  -0.000041
    11  C   -0.000144   0.002510  -0.001503  -0.000156   0.000006  -0.000011
    12  C    0.000001   0.000330  -0.000100  -0.000010   0.000000   0.000000
    13  C    0.000003  -0.000298  -0.000026  -0.000001   0.000000   0.000000
    14  C   -0.000044   0.002134  -0.000029  -0.000009   0.000000   0.000001
    15  C    0.000000  -0.000006  -0.000005   0.000000   0.000000   0.000000
    16  C    0.000000   0.000002   0.000006   0.000001   0.000000   0.000000
    17  C   -0.000002  -0.000057  -0.000046  -0.000024  -0.000002   0.000001
    18  C   -0.000414  -0.004822  -0.003407  -0.000379   0.000045  -0.000028
    19  C    0.000000   0.000001   0.000000   0.000000   0.000000   0.000000
    20  C    0.000000   0.000000   0.000000   0.000000   0.000000   0.000000
    21  O    0.000000   0.000000   0.000000   0.000000   0.000000   0.000000
    22  C   -0.000003  -0.000191  -0.000004   0.000000   0.000000   0.000000
    23  O    0.000000   0.000000   0.000000   0.000000   0.000000   0.000000
    24  C    0.000000   0.000000   0.000000   0.000000   0.000000   0.000000
    25  O    0.000000   0.000000   0.000000   0.000000   0.000000   0.000000
    26  H    0.000000   0.000000   0.000000   0.000000   0.000000   0.000000
    27  H    0.000000   0.000000   0.000000   0.000000   0.000000   0.000000
    28  H    0.000000   0.000000   0.000000   0.000000   0.000000   0.000000
    29  H    0.000000   0.000030  -0.000002   0.000000   0.000000   0.000000
    30  H    0.000006  -0.000433   0.000076   0.000002   0.000000   0.000000
    31  H    0.000000   0.000014  -0.000002   0.000000   0.000000   0.000000
    32  H    0.000000   0.000000   0.000000   0.000000   0.000000   0.000000
    33  H    0.000000   0.000000   0.000000   0.000000   0.000000   0.000000
    34  H    0.000000  -0.000003  -0.000001   0.000000   0.000000   0.000000
    35  H    0.001425   0.002035  -0.000979  -0.000269  -0.000041   0.000196
    36  H    0.000000   0.000000   0.000000   0.000000   0.000000   0.000000
    37  H   -0.022983   0.001859   0.000244   0.001799  -0.030743   0.396089
    38  H    0.391392  -0.026239   0.002647   0.000166   0.002433  -0.028772
    39  H    0.002552  -0.022343   0.389914  -0.025022   0.002238   0.000176
    40  H    0.000315   0.001720  -0.021759   0.396303  -0.030860   0.001741
              7          8          9         10         11         12
     1  C   -0.028675   0.006024   0.002071   0.004288  -0.000144   0.000001
     2  C    0.362391  -0.090220   0.000256  -0.121698   0.002510   0.000330
     3  C   -0.031685   0.001087   0.002074   0.000383  -0.001503  -0.000100
     4  C    0.002602  -0.000036  -0.061070   0.000398  -0.000156  -0.000010
     5  C   -0.000277  -0.000007   0.220533  -0.000017   0.000006   0.000000
     6  C    0.002988   0.000474  -0.062056  -0.000041  -0.000011   0.000000
     7  C    4.068711   0.593951   0.000005   0.271211  -0.017445   0.002226
     8  O    0.593951   8.122075   0.000000  -0.088663   0.001290  -0.000156
     9  Cl   0.000005   0.000000  16.928651   0.000000   0.000000   0.000000
    10  N    0.271211  -0.088663   0.000000   7.616821   0.235313  -0.064653
    11  C   -0.017445   0.001290   0.000000   0.235313   4.643486   0.557968
    12  C    0.002226  -0.000156   0.000000  -0.064653   0.557968   4.819634
    13  C    0.001425   0.000217   0.000000  -0.065256  -0.053156   0.441980
    14  C   -0.021038   0.002732   0.000000   0.234107  -0.097767  -0.046575
    15  C   -0.000020   0.000000   0.000000   0.007112  -0.046181   0.524349
    16  C    0.000004   0.000000   0.000000  -0.000203  -0.028001  -0.039521
    17  C   -0.000064  -0.000002   0.000000   0.004912  -0.040964  -0.031329
    18  C   -0.001839   0.000078   0.000000  -0.062792   0.549551  -0.034014
    19  C   -0.000051   0.000000   0.000000   0.003037   0.004817  -0.039845
    20  C    0.000000   0.000000   0.000000  -0.000065  -0.000024   0.001051
    21  O    0.000000   0.000000   0.000000  -0.000037  -0.000013   0.000237
    22  C   -0.000436  -0.002411   0.000000  -0.047417   0.003510   0.002862
    23  O    0.000000   0.000000   0.000000   0.000000   0.000061   0.000188
    24  C    0.000000   0.000000   0.000000   0.000000  -0.000006   0.000050
    25  O    0.000000   0.000000   0.000000   0.000000   0.000002  -0.000186
    26  H    0.000000   0.000000   0.000000   0.000000   0.000000   0.000000
    27  H    0.000000   0.000000   0.000000   0.000000  -0.000004   0.000001
    28  H    0.000000   0.000000   0.000000   0.000000   0.000002  -0.000003
    29  H    0.000439   0.000591   0.000000   0.000055  -0.000123   0.000045
    30  H    0.001657  -0.000800   0.000000  -0.004394   0.000068  -0.000195
    31  H    0.000125   0.000157   0.000000   0.002055  -0.000176   0.000391
    32  H    0.000001   0.000000   0.000000  -0.000077   0.000101  -0.007049
    33  H    0.000005   0.000000   0.000000   0.000039  -0.000144  -0.000087
    34  H   -0.000001   0.000000   0.000000  -0.000079   0.000680   0.000760
    35  H    0.000407  -0.000020  -0.000001  -0.002541  -0.023269   0.001830
    36  H    0.000001   0.000000   0.000000  -0.000083   0.002697  -0.021757
    37  H   -0.000064   0.000001  -0.000345   0.000001   0.000000   0.000000
    38  H   -0.001973   0.006157  -0.000085   0.000219  -0.000020   0.000000
    39  H   -0.002881  -0.000009  -0.000078   0.002271   0.000903   0.000058
    40  H   -0.000068   0.000000  -0.000346   0.000004  -0.000003   0.000000
             13         14         15         16         17         18
     1  C    0.000003  -0.000044   0.000000   0.000000  -0.000002  -0.000414
     2  C   -0.000298   0.002134  -0.000006   0.000002  -0.000057  -0.004822
     3  C   -0.000026  -0.000029  -0.000005   0.000006  -0.000046  -0.003407
     4  C   -0.000001  -0.000009   0.000000   0.000001  -0.000024  -0.000379
     5  C    0.000000   0.000000   0.000000   0.000000  -0.000002   0.000045
     6  C    0.000000   0.000001   0.000000   0.000000   0.000001  -0.000028
     7  C    0.001425  -0.021038  -0.000020   0.000004  -0.000064  -0.001839
     8  O    0.000217   0.002732   0.000000   0.000000  -0.000002   0.000078
     9  Cl   0.000000   0.000000   0.000000   0.000000   0.000000   0.000000
    10  N   -0.065256   0.234107   0.007112  -0.000203   0.004912  -0.062792
    11  C   -0.053156  -0.097767  -0.046181  -0.028001  -0.040964   0.549551
    12  C    0.441980  -0.046575   0.524349  -0.039521  -0.031329  -0.034014
    13  C    4.993681   0.673166  -0.046579   0.003060   0.000053   0.007247
    14  C    0.673166   4.753777   0.006080  -0.000280  -0.000034   0.001211
    15  C   -0.046579   0.006080   4.912236   0.577509  -0.051914  -0.042867
    16  C    0.003060  -0.000280   0.577509   4.496167   0.525226  -0.030165
    17  C    0.000053  -0.000034  -0.051914   0.525226   5.007463   0.497594
    18  C    0.007247   0.001211  -0.042867  -0.030165   0.497594   4.901692
    19  C    0.271690  -0.050714  -0.002717   0.000073   0.000002  -0.000084
    20  C   -0.022532  -0.003130  -0.000037  -0.000001   0.000000   0.000001
    21  O    0.005883   0.001387   0.000001   0.000000   0.000000   0.000000
    22  C   -0.037501   0.323895  -0.000082   0.000001   0.000001  -0.000021
    23  O   -0.000053   0.000001  -0.043760   0.224444  -0.049096   0.003723
    24  C    0.000002   0.000000   0.002216  -0.046152  -0.008683  -0.000198
    25  O    0.001551   0.000070  -0.000013   0.000000   0.000000   0.000000
    26  H    0.000000   0.000000   0.000012   0.002882   0.000325   0.000014
    27  H    0.000000   0.000000  -0.000034  -0.002493   0.000979  -0.000267
    28  H    0.000000   0.000000  -0.000112  -0.002614   0.000297  -0.000255
    29  H   -0.002919  -0.042011   0.000005   0.000000   0.000000   0.000002
    30  H    0.002786  -0.041864   0.000002   0.000000   0.000000  -0.000001
    31  H   -0.004462  -0.025670   0.000005   0.000000   0.000000   0.000000
    32  H   -0.043408   0.004623   0.000223  -0.000007   0.000001  -0.000011
    33  H   -0.043197  -0.006236   0.000137   0.000001   0.000000   0.000004
    34  H    0.000006   0.000002   0.001780  -0.030826   0.391541  -0.024678
    35  H   -0.000177  -0.000016   0.000468   0.000683  -0.022506   0.380659
    36  H   -0.001666  -0.000023   0.381169  -0.029652   0.003466  -0.000066
    37  H    0.000000   0.000000   0.000000   0.000000   0.000000   0.000000
    38  H    0.000000  -0.000002   0.000000   0.000000   0.000000   0.000007
    39  H   -0.000017   0.000159  -0.000002  -0.000005  -0.000042   0.000067
    40  H    0.000000   0.000000   0.000000   0.000000   0.000000  -0.000004
             19         20         21         22         23         24
     1  C    0.000000   0.000000   0.000000  -0.000003   0.000000   0.000000
     2  C    0.000001   0.000000   0.000000  -0.000191   0.000000   0.000000
     3  C    0.000000   0.000000   0.000000  -0.000004   0.000000   0.000000
     4  C    0.000000   0.000000   0.000000   0.000000   0.000000   0.000000
     5  C    0.000000   0.000000   0.000000   0.000000   0.000000   0.000000
     6  C    0.000000   0.000000   0.000000   0.000000   0.000000   0.000000
     7  C   -0.000051   0.000000   0.000000  -0.000436   0.000000   0.000000
     8  O    0.000000   0.000000   0.000000  -0.002411   0.000000   0.000000
     9  Cl   0.000000   0.000000   0.000000   0.000000   0.000000   0.000000
    10  N    0.003037  -0.000065  -0.000037  -0.047417   0.000000   0.000000
    11  C    0.004817  -0.000024  -0.000013   0.003510   0.000061  -0.000006
    12  C   -0.039845   0.001051   0.000237   0.002862   0.000188   0.000050
    13  C    0.271690  -0.022532   0.005883  -0.037501  -0.000053   0.000002
    14  C   -0.050714  -0.003130   0.001387   0.323895   0.000001   0.000000
    15  C   -0.002717  -0.000037   0.000001  -0.000082  -0.043760   0.002216
    16  C    0.000073  -0.000001   0.000000   0.000001   0.224444  -0.046152
    17  C    0.000002   0.000000   0.000000   0.000001  -0.049096  -0.008683
    18  C   -0.000084   0.000001   0.000000  -0.000021   0.003723  -0.000198
    19  C    5.222620   0.333942  -0.116034   0.001186   0.000000   0.000000
    20  C    0.333942   4.042681   0.417884  -0.000102   0.000000   0.000000
    21  O   -0.116034   0.417884   8.581853  -0.086781   0.000000   0.000000
    22  C    0.001186  -0.000102  -0.086781   5.097298   0.000000   0.000000
    23  O    0.000000   0.000000   0.000000   0.000000   8.438495   0.222124
    24  C    0.000000   0.000000   0.000000   0.000000   0.222124   4.641238
    25  O   -0.106643   0.529748  -0.072243  -0.000255   0.000000   0.000000
    26  H    0.000000   0.000000   0.000000   0.000000  -0.033414   0.412635
    27  H    0.000000   0.000000   0.000000   0.000000  -0.035814   0.396638
    28  H    0.000000   0.000000   0.000000   0.000000  -0.036271   0.396713
    29  H   -0.000042  -0.000023   0.001505   0.387232   0.000000   0.000000
    30  H    0.000102   0.000070   0.001403   0.389762   0.000000   0.000000
    31  H   -0.001461  -0.009799   0.034211   0.364860   0.000000   0.000000
    32  H    0.382900  -0.027194   0.003208  -0.000022  -0.000002   0.000000
    33  H    0.384023  -0.026604   0.004494   0.000122   0.000000   0.000000
    34  H    0.000000   0.000000   0.000000   0.000000  -0.004277  -0.000132
    35  H    0.000001   0.000000   0.000000   0.000000  -0.000028  -0.000005
    36  H    0.001556  -0.000021   0.000000  -0.000001   0.000929  -0.000099
    37  H    0.000000   0.000000   0.000000   0.000000   0.000000   0.000000
    38  H    0.000000   0.000000   0.000000   0.000000   0.000000   0.000000
    39  H   -0.000001   0.000000   0.000000  -0.000001   0.000000   0.000000
    40  H    0.000000   0.000000   0.000000   0.000000   0.000000   0.000000
             25         26         27         28         29         30
     1  C    0.000000   0.000000   0.000000   0.000000   0.000000   0.000006
     2  C    0.000000   0.000000   0.000000   0.000000   0.000030  -0.000433
     3  C    0.000000   0.000000   0.000000   0.000000  -0.000002   0.000076
     4  C    0.000000   0.000000   0.000000   0.000000   0.000000   0.000002
     5  C    0.000000   0.000000   0.000000   0.000000   0.000000   0.000000
     6  C    0.000000   0.000000   0.000000   0.000000   0.000000   0.000000
     7  C    0.000000   0.000000   0.000000   0.000000   0.000439   0.001657
     8  O    0.000000   0.000000   0.000000   0.000000   0.000591  -0.000800
     9  Cl   0.000000   0.000000   0.000000   0.000000   0.000000   0.000000
    10  N    0.000000   0.000000   0.000000   0.000000   0.000055  -0.004394
    11  C    0.000002   0.000000  -0.000004   0.000002  -0.000123   0.000068
    12  C   -0.000186   0.000000   0.000001  -0.000003   0.000045  -0.000195
    13  C    0.001551   0.000000   0.000000   0.000000  -0.002919   0.002786
    14  C    0.000070   0.000000   0.000000   0.000000  -0.042011  -0.041864
    15  C   -0.000013   0.000012  -0.000034  -0.000112   0.000005   0.000002
    16  C    0.000000   0.002882  -0.002493  -0.002614   0.000000   0.000000
    17  C    0.000000   0.000325   0.000979   0.000297   0.000000   0.000000
    18  C    0.000000   0.000014  -0.000267  -0.000255   0.000002  -0.000001
    19  C   -0.106643   0.000000   0.000000   0.000000  -0.000042   0.000102
    20  C    0.529748   0.000000   0.000000   0.000000  -0.000023   0.000070
    21  O   -0.072243   0.000000   0.000000   0.000000   0.001505   0.001403
    22  C   -0.000255   0.000000   0.000000   0.000000   0.387232   0.389762
    23  O    0.000000  -0.033414  -0.035814  -0.036271   0.000000   0.000000
    24  C    0.000000   0.412635   0.396638   0.396713   0.000000   0.000000
    25  O    8.354495   0.000000   0.000000   0.000000   0.000000   0.000006
    26  H    0.000000   0.563434  -0.032420  -0.033791   0.000000   0.000000
    27  H    0.000000  -0.032420   0.618943  -0.050713   0.000000   0.000000
    28  H    0.000000  -0.033791  -0.050713   0.625020   0.000000   0.000000
    29  H    0.000000   0.000000   0.000000   0.000000   0.607013  -0.037968
    30  H    0.000006   0.000000   0.000000   0.000000  -0.037968   0.630698
    31  H    0.000486   0.000000   0.000000   0.000000  -0.014235  -0.017224
    32  H    0.008991   0.000000   0.000000   0.000000  -0.000003   0.000002
    33  H    0.002091   0.000000   0.000000   0.000000   0.000413  -0.000045
    34  H    0.000000   0.000053  -0.000622  -0.000696   0.000000   0.000000
    35  H    0.000000   0.000000   0.000000  -0.000002   0.000000   0.000000
    36  H   -0.000015  -0.000015   0.000015   0.000015   0.000000   0.000000
    37  H    0.000000   0.000000   0.000000   0.000000   0.000000   0.000000
    38  H    0.000000   0.000000   0.000000   0.000000   0.000000   0.000000
    39  H    0.000000   0.000000   0.000000   0.000000   0.000000   0.000012
    40  H    0.000000   0.000000   0.000000   0.000000   0.000000   0.000000
             31         32         33         34         35         36
     1  C    0.000000   0.000000   0.000000   0.000000   0.001425   0.000000
     2  C    0.000014   0.000000   0.000000  -0.000003   0.002035   0.000000
     3  C   -0.000002   0.000000   0.000000  -0.000001  -0.000979   0.000000
     4  C    0.000000   0.000000   0.000000   0.000000  -0.000269   0.000000
     5  C    0.000000   0.000000   0.000000   0.000000  -0.000041   0.000000
     6  C    0.000000   0.000000   0.000000   0.000000   0.000196   0.000000
     7  C    0.000125   0.000001   0.000005  -0.000001   0.000407   0.000001
     8  O    0.000157   0.000000   0.000000   0.000000  -0.000020   0.000000
     9  Cl   0.000000   0.000000   0.000000   0.000000  -0.000001   0.000000
    10  N    0.002055  -0.000077   0.000039  -0.000079  -0.002541  -0.000083
    11  C   -0.000176   0.000101  -0.000144   0.000680  -0.023269   0.002697
    12  C    0.000391  -0.007049  -0.000087   0.000760   0.001830  -0.021757
    13  C   -0.004462  -0.043408  -0.043197   0.000006  -0.000177  -0.001666
    14  C   -0.025670   0.004623  -0.006236   0.000002  -0.000016  -0.000023
    15  C    0.000005   0.000223   0.000137   0.001780   0.000468   0.381169
    16  C    0.000000  -0.000007   0.000001  -0.030826   0.000683  -0.029652
    17  C    0.000000   0.000001   0.000000   0.391541  -0.022506   0.003466
    18  C    0.000000  -0.000011   0.000004  -0.024678   0.380659  -0.000066
    19  C   -0.001461   0.382900   0.384023   0.000000   0.000001   0.001556
    20  C   -0.009799  -0.027194  -0.026604   0.000000   0.000000  -0.000021
    21  O    0.034211   0.003208   0.004494   0.000000   0.000000   0.000000
    22  C    0.364860  -0.000022   0.000122   0.000000   0.000000  -0.000001
    23  O    0.000000  -0.000002   0.000000  -0.004277  -0.000028   0.000929
    24  C    0.000000   0.000000   0.000000  -0.000132  -0.000005  -0.000099
    25  O    0.000486   0.008991   0.002091   0.000000   0.000000  -0.000015
    26  H    0.000000   0.000000   0.000000   0.000053   0.000000  -0.000015
    27  H    0.000000   0.000000   0.000000  -0.000622   0.000000   0.000015
    28  H    0.000000   0.000000   0.000000  -0.000696  -0.000002   0.000015
    29  H   -0.014235  -0.000003   0.000413   0.000000   0.000000   0.000000
    30  H   -0.017224   0.000002  -0.000045   0.000000   0.000000   0.000000
    31  H    0.353976   0.000013  -0.000588   0.000000   0.000000   0.000000
    32  H    0.000013   0.596133  -0.030940   0.000000   0.000000   0.001669
    33  H   -0.000588  -0.030940   0.606640   0.000000   0.000000  -0.000123
    34  H    0.000000   0.000000   0.000000   0.536490  -0.001759  -0.000119
    35  H    0.000000   0.000000   0.000000  -0.001759   0.511597   0.000012
    36  H    0.000000   0.001669  -0.000123  -0.000119   0.000012   0.488452
    37  H    0.000000   0.000000   0.000000   0.000000   0.000001   0.000000
    38  H    0.000000   0.000000   0.000000   0.000000   0.000028   0.000000
    39  H   -0.000001   0.000000   0.000000  -0.000001   0.000054   0.000000
    40  H    0.000000   0.000000   0.000000   0.000000   0.000004   0.000000
             37         38         39         40
     1  C   -0.022983   0.391392   0.002552   0.000315
     2  C    0.001859  -0.026239  -0.022343   0.001720
     3  C    0.000244   0.002647   0.389914  -0.021759
     4  C    0.001799   0.000166  -0.025022   0.396303
     5  C   -0.030743   0.002433   0.002238  -0.030860
     6  C    0.396089  -0.028772   0.000176   0.001741
     7  C   -0.000064  -0.001973  -0.002881  -0.000068
     8  O    0.000001   0.006157  -0.000009   0.000000
     9  Cl  -0.000345  -0.000085  -0.000078  -0.000346
    10  N    0.000001   0.000219   0.002271   0.000004
    11  C    0.000000  -0.000020   0.000903  -0.000003
    12  C    0.000000   0.000000   0.000058   0.000000
    13  C    0.000000   0.000000  -0.000017   0.000000
    14  C    0.000000  -0.000002   0.000159   0.000000
    15  C    0.000000   0.000000  -0.000002   0.000000
    16  C    0.000000   0.000000  -0.000005   0.000000
    17  C    0.000000   0.000000  -0.000042   0.000000
    18  C    0.000000   0.000007   0.000067  -0.000004
    19  C    0.000000   0.000000  -0.000001   0.000000
    20  C    0.000000   0.000000   0.000000   0.000000
    21  O    0.000000   0.000000   0.000000   0.000000
    22  C    0.000000   0.000000  -0.000001   0.000000
    23  O    0.000000   0.000000   0.000000   0.000000
    24  C    0.000000   0.000000   0.000000   0.000000
    25  O    0.000000   0.000000   0.000000   0.000000
    26  H    0.000000   0.000000   0.000000   0.000000
    27  H    0.000000   0.000000   0.000000   0.000000
    28  H    0.000000   0.000000   0.000000   0.000000
    29  H    0.000000   0.000000   0.000000   0.000000
    30  H    0.000000   0.000000   0.000012   0.000000
    31  H    0.000000   0.000000  -0.000001   0.000000
    32  H    0.000000   0.000000   0.000000   0.000000
    33  H    0.000000   0.000000   0.000000   0.000000
    34  H    0.000000   0.000000  -0.000001   0.000000
    35  H    0.000001   0.000028   0.000054   0.000004
    36  H    0.000000   0.000000   0.000000   0.000000
    37  H    0.482832  -0.001892   0.000008  -0.000108
    38  H   -0.001892   0.463585  -0.000105   0.000009
    39  H    0.000008  -0.000105   0.437813  -0.001651
    40  H   -0.000108   0.000009  -0.001651   0.472711
 Mulliken atomic charges:
              1
     1  C   -0.107237
     2  C   -0.152429
     3  C   -0.103188
     4  C   -0.127858
     5  C   -0.144870
     6  C   -0.128925
     7  C    0.798366
     8  O   -0.552509
     9  Cl  -0.029609
    10  N   -0.924207
    11  C    0.306148
    12  C   -0.068481
    13  C   -0.081503
    14  C    0.332095
    15  C   -0.178975
    16  C    0.379861
    17  C   -0.227096
    18  C   -0.135581
    19  C   -0.288359
    20  C    0.764154
    21  O   -0.776959
    22  C   -0.395502
    23  O   -0.687252
    24  C   -0.016342
    25  O   -0.718084
    26  H    0.120285
    27  H    0.105791
    28  H    0.102410
    29  H    0.099996
    30  H    0.076272
    31  H    0.317324
    32  H    0.110848
    33  H    0.109995
    34  H    0.131880
    35  H    0.152213
    36  H    0.173659
    37  H    0.173301
    38  H    0.192445
    39  H    0.215931
    40  H    0.181991
 Sum of Mulliken charges=  -1.00000
 Atomic charges with hydrogens summed into heavy atoms:
              1
     1  C    0.085208
     2  C   -0.152429
     3  C    0.112743
     4  C    0.054133
     5  C   -0.144870
     6  C    0.044376
     7  C    0.798366
     8  O   -0.552509
     9  Cl  -0.029609
    10  N   -0.924207
    11  C    0.306148
    12  C   -0.068481
    13  C   -0.081503
    14  C    0.332095
    15  C   -0.005316
    16  C    0.379861
    17  C   -0.095216
    18  C    0.016631
    19  C   -0.067516
    20  C    0.764154
    21  O   -0.776959
    22  C    0.098091
    23  O   -0.687252
    24  C    0.312144
    25  O   -0.718084
    26  H    0.000000
    27  H    0.000000
    28  H    0.000000
    29  H    0.000000
    30  H    0.000000
    31  H    0.000000
    32  H    0.000000
    33  H    0.000000
    34  H    0.000000
    35  H    0.000000
    36  H    0.000000
    37  H    0.000000
    38  H    0.000000
    39  H    0.000000
    40  H    0.000000
 Sum of Mulliken charges=  -1.00000
 Electronic spatial extent (au):  <R**2>= 11384.8756
 Charge=    -1.0000 electrons
 Dipole moment (field-independent basis, Debye):
    X=    16.6158    Y=    10.7604    Z=    -4.9600  Tot=    20.4076
 Quadrupole moment (field-independent basis, Debye-Ang):
   XX=  -243.3594   YY=  -187.4531   ZZ=  -172.9090
   XY=   -34.2821   XZ=    25.6451   YZ=     8.6521
 Traceless Quadrupole moment (field-independent basis, Debye-Ang):
   XX=   -42.1189   YY=    13.7874   ZZ=    28.3315
   XY=   -34.2821   XZ=    25.6451   YZ=     8.6521
 Octapole moment (field-independent basis, Debye-Ang**2):
  XXX=   250.8837  YYY=   167.6731  ZZZ=    -9.0125  XYY=   129.9619
  XXY=   151.6395  XXZ=  -195.9986  XZZ=    83.9898  YZZ=    36.9026
  YYZ=   -17.0946  XYZ=   -65.8122
 Hexadecapole moment (field-independent basis, Debye-Ang**3):
 XXXX=-11543.0815 YYYY= -4560.4513 ZZZZ= -1172.6445 XXXY=  -747.6137
 XXXZ=   478.2274 YYYX=  -296.4652 YYYZ=    49.7646 ZZZX=   154.1859
 ZZZY=    42.1734 XXYY= -2955.9373 XXZZ= -2091.1320 YYZZ= -1059.3915
 XXYZ=   349.6711 YYXZ=   153.3728 ZZXY=  -113.1468
 N-N= 2.184168299975D+03 E-N=-8.015410784853D+03  KE= 1.538841292042D+03
 Merz-Kollman atomic radii used.

 **********************************************************************

            Electrostatic Properties Using The SCF Density

 **********************************************************************

       Atomic Center    1 is at   3.297321 -1.093264 -1.306472
       Atomic Center    2 is at   2.112933 -1.011164 -0.580074
       Atomic Center    3 is at   2.151188 -0.607927  0.751992
       Atomic Center    4 is at   3.355594 -0.274281  1.351271
       Atomic Center    5 is at   4.522716 -0.349163  0.601849
       Atomic Center    6 is at   4.509305 -0.757921 -0.725108
       Atomic Center    7 is at   0.805275 -1.449068 -1.243214
       Atomic Center    8 is at   0.796121 -2.311083 -2.108415
       Atomic Center    9 is at   6.079598  0.084992  1.362644
       Atomic Center   10 is at  -0.397341 -0.829221 -0.754259
       Atomic Center   11 is at  -0.629977  0.558451 -0.593823
       Atomic Center   12 is at  -1.990284  0.714783 -0.268903
       Atomic Center   13 is at  -2.606821 -0.613843 -0.249706
       Atomic Center   14 is at  -1.650095 -1.506410 -0.563376
       Atomic Center   15 is at  -2.492499  1.996025 -0.056438
       Atomic Center   16 is at  -1.652194  3.094756 -0.181054
       Atomic Center   17 is at  -0.304712  2.920230 -0.529151
       Atomic Center   18 is at   0.209285  1.655369 -0.739539
       Atomic Center   19 is at  -4.068200 -0.921912  0.047117
       Atomic Center   20 is at  -4.308358 -2.054947  1.192598
       Atomic Center   21 is at  -3.960238 -3.246552  0.866772
       Atomic Center   22 is at  -1.792161 -3.010799 -0.631798
       Atomic Center   23 is at  -2.274685  4.339249  0.049307
       Atomic Center   24 is at  -1.399719  5.467791 -0.019757
       Atomic Center   25 is at  -4.832047 -1.645390  2.249416
       Atomic Center   26 is at  -2.007368  6.345119  0.211380
       Atomic Center   27 is at  -0.583671  5.414028  0.707091
       Atomic Center   28 is at  -0.965986  5.604624 -1.015053
       Atomic Center   29 is at  -1.867278 -3.342904 -1.664376
       Atomic Center   30 is at  -0.925674 -3.492861 -0.189043
       Atomic Center   31 is at  -2.739054 -3.243302 -0.036332
       Atomic Center   32 is at  -4.564318 -0.004052  0.351944
       Atomic Center   33 is at  -4.548159 -1.256623 -0.873424
       Atomic Center   34 is at   0.348652  3.770347 -0.641216
       Atomic Center   35 is at   1.247133  1.540567 -1.017468
       Atomic Center   36 is at  -3.530783  2.155328  0.200697
       Atomic Center   37 is at   5.431977 -0.814183 -1.287448
       Atomic Center   38 is at   3.264235 -1.425909 -2.336959
       Atomic Center   39 is at   1.231909 -0.558941  1.323249
       Atomic Center   40 is at   3.391828  0.038395  2.386694
    1800 points will be used for fitting atomic charges
 Fitting point charges to eletrostatic potential
 The dipole moment will be constrained to the correct value
 Charges from ESP fit, RMS=   0.00174 RRMS=   0.01786:
 Charge=  -1.00000 Dipole=    16.6158    10.7604    -4.9600 Tot=    20.4076
              1
     1  C   -0.276577
     2  C    0.057125
     3  C   -0.187130
     4  C   -0.023708
     5  C   -0.060134
     6  C    0.018124
     7  C    0.619398
     8  O   -0.536442
     9  Cl  -0.137132
    10  N   -0.134577
    11  C   -0.062809
    12  C    0.161942
    13  C   -0.065300
    14  C    0.035091
    15  C   -0.437811
    16  C    0.444019
    17  C   -0.362888
    18  C   -0.181050
    19  C   -0.133188
    20  C    0.809846
    21  O   -0.799588
    22  C   -0.319001
    23  O   -0.428841
    24  C    0.098756
    25  O   -0.757779
    26  H    0.052630
    27  H    0.031601
    28  H    0.023952
    29  H    0.074781
    30  H    0.060734
    31  H    0.231821
    32  H    0.031947
    33  H    0.029937
    34  H    0.164485
    35  H    0.158525
    36  H    0.213337
    37  H    0.112165
    38  H    0.180710
    39  H    0.163496
    40  H    0.129528
 -----------------------------------------------------------------

              Electrostatic Properties (Atomic Units)

 -----------------------------------------------------------------
    Center     Electric         -------- Electric Field --------
               Potential          X             Y             Z
 -----------------------------------------------------------------
    1 Atom    -14.766346
    2 Atom    -14.765964
    3 Atom    -14.768205
    4 Atom    -14.766231
    5 Atom    -14.700236
    6 Atom    -14.764539
    7 Atom    -14.655060
    8 Atom    -22.402999
    9 Atom    -64.451978
   10 Atom    -18.381665
   11 Atom    -14.781999
   12 Atom    -14.821240
   13 Atom    -14.850953
   14 Atom    -14.801986
   15 Atom    -14.827391
   16 Atom    -14.751419
   17 Atom    -14.813558
   18 Atom    -14.806023
   19 Atom    -14.867593
   20 Atom    -14.781494
   21 Atom    -22.560748
   22 Atom    -14.894605
   23 Atom    -22.367973
   24 Atom    -14.740066
   25 Atom    -22.557850
   26 Atom     -1.182905
   27 Atom     -1.184071
   28 Atom     -1.184308
   29 Atom     -1.265489
   30 Atom     -1.263265
   31 Atom     -1.252523
   32 Atom     -1.269394
   33 Atom     -1.264429
   34 Atom     -1.186376
   35 Atom     -1.184233
   36 Atom     -1.205853
   37 Atom     -1.145764
   38 Atom     -1.155934
   39 Atom     -1.159174
   40 Atom     -1.149143
 -----------------------------------------------------------------
 1\1\GINC-LUXOR\SP\RHF\6-31G(d,p)\C19H15Cl1N1O4(1-)\JORGE\02-Feb-2009\0
 \\# HF/6-31(d,p) # POP=(MK,Dipole)\\Molden generated mol2\\-1,1\C,0,3.
 297321,-1.093264,-1.306472\C,0,2.112933,-1.011164,-0.580074\C,0,2.1511
 88,-0.607927,0.751992\C,0,3.355594,-0.274281,1.351271\C,0,4.522716,-0.
 349162,0.601849\C,0,4.509305,-0.75792,-0.725108\C,0,0.805275,-1.449068
 ,-1.243214\O,0,0.796121,-2.311083,-2.108415\Cl,0,6.079598,0.084993,1.3
 62644\N,0,-0.397341,-0.829221,-0.754259\C,0,-0.629977,0.558451,-0.5938
 23\C,0,-1.990284,0.714783,-0.268903\C,0,-2.606821,-0.613843,-0.249706\
 C,0,-1.650095,-1.50641,-0.563376\C,0,-2.492499,1.996025,-0.056438\C,0,
 -1.652194,3.094756,-0.181054\C,0,-0.304712,2.92023,-0.529151\C,0,0.209
 285,1.655369,-0.739539\C,0,-4.0682,-0.921912,0.047117\C,0,-4.308358,-2
 .054947,1.192598\O,0,-3.960238,-3.246552,0.866772\C,0,-1.792161,-3.010
 799,-0.631798\O,0,-2.274686,4.339249,0.049307\C,0,-1.39972,5.467791,-0
 .019757\O,0,-4.832047,-1.64539,2.249416\H,0,-2.007369,6.345119,0.21138
 \H,0,-0.583672,5.414028,0.707091\H,0,-0.965987,5.604624,-1.015053\H,0,
 -1.867278,-3.342904,-1.664376\H,0,-0.925674,-3.492861,-0.189043\H,0,-2
 .739054,-3.243302,-0.036332\H,0,-4.564318,-0.004052,0.351944\H,0,-4.54
 8159,-1.256623,-0.873424\H,0,0.348652,3.770347,-0.641216\H,0,1.247133,
 1.540567,-1.017468\H,0,-3.530783,2.155328,0.200697\H,0,5.431977,-0.814
 182,-1.287448\H,0,3.264235,-1.425909,-2.336959\H,0,1.231909,-0.558941,
 1.323249\H,0,3.391828,0.038395,2.386694\\Version=EM64L-G03RevE.01\Stat
 e=1-A\HF=-1541.6433297\RMSD=5.084e-06\Thermal=0.\Dipole=6.5371452,4.23
 34604,-1.951416\PG=C01 [X(C19H15Cl1N1O4)]\\@


 ASKING DUMB QUESTIONS IS EASIER THAN CORECTING DUMB MISTAKES.
 Job cpu time:  0 days  0 hours 19 minutes  3.3 seconds.
 File lengths (MBytes):  RWF=    117 Int=      0 D2E=      0 Chk=     18 Scr=      1
 Normal termination of Gaussian 03 at Mon Feb  2 15:28:59 2009.
